{
	"saturatedHydrocarbons":[
		{
			"formula":"CH4",
			"C":1,
			"H":4,
			"name":"methane",
			"radical":"CH3-",
			"melting_point":"-182.5",
			"boiling_point":"-164",
			"state_at_25":"gas"
		},
		{
			"formula":"C2H6",
			"C":2,
			"H":6,
			"name":"ethane",
			"radical":"C2H5-",
			"melting_point":"-183.3",
			"boiling_point":"-88.6",
			"state_at_25":"gas"
		},
		{
			"formula":"C3H8",
			"C":3,
			"H":8,
			"name":"propane",
			"radical":"C3H7-",
			"melting_point":"-189.7",
			"boiling_point":"-42.1",
			"state_at_25":"gas"
		},
		{
			"formula":"C4H10",
			"C":4,
			"H":10,
			"name":"butane",
			"radical":"C4H9-",
			"melting_point":"-138.4",
			"boiling_point":"-0.5",
			"state_at_25":"gas"
		},
		{
			"formula":"C5H12",
			"C":5,
			"H":12,
			"name":"pentane",
			"radical":"C5H11-",
			"melting_point":"-129.7",
			"boiling_point":"36.1",
			"state_at_25":"liquid"
		},
		{
			"formula":"C6H14",
			"C":6,
			"H":14,
			"name":"hexane",
			"radical":"C6H13-",
			"melting_point":"-95",
			"boiling_point":"68.9",
			"state_at_25":"liquid"
		},
		{
			"formula":"C7H16",
			"C":7,
			"H":16,
			"name":"heptane",
			"radical":"C7H15-",
			"melting_point":"-90.6",
			"boiling_point":"98.4",
			"state_at_25":"liquid"
		},
		{
			"formula":"C8H18",
			"C":8,
			"H":18,
			"name":"octane",
			"radical":"C8H17-",
			"melting_point":"-56.8",
			"boiling_point":"124.7",
			"state_at_25":"liquid"
		},
		{
			"formula":"C9H20",
			"C":9,
			"H":20,
			"name":"nonane",
			"radical":"C9H19-",
			"melting_point":"-51",
			"boiling_point":"150.8",
			"state_at_25":"liquid"
		},
		{
			"formula":"C10H22",
			"C":10,
			"H":22,
			"name":"decane",
			"radical":"C10H21-",
			"melting_point":"-29.7",
			"boiling_point":"174.1",
			"state_at_25":"liquid"
		},
		{
			"formula":"C11H24",
			"C":11,
			"H":24,
			"name":"undecane",
			"radical":"C11H23-",
			"melting_point":"-24.6",
			"boiling_point":"195.9",
			"state_at_25":"liquid"
		},
		{
			"formula":"C12H26",
			"C":12,
			"H":26,
			"name":"dodecane",
			"radical":"C12H25-",
			"melting_point":"-9.6",
			"boiling_point":"216.3",
			"state_at_25":"liquid"
		},
		{
			"formula":"C20H42",
			"C":20,
			"H":42,
			"name":"icosane",
			"radical":"C20H41-",
			"melting_point":"36.8",
			"boiling_point":"343",
			"state_at_25":"solid"
		},
		{
			"formula":"C30H62",
			"C":30,
			"H":62,
			"name":"triacontane",
			"radical":"C30H61-",
			"melting_point":"65.8",
			"boiling_point":"449.7",
			"state_at_25":"solid"
		}
	]
}
